14
Properties=species:S:1:pos:R:3:forces:R:3:energies:R:1 Title=T Card=T Required=T energy=-2.0528875940161417 stress="-1.591024356562279e-08 -5.2291566302045666e-09 -1.6484499665775387e-10 -5.2291566302045666e-09 -2.1243205775664594e-08 -3.6204238647700295e-10 -1.6484499665775387e-10 -3.6204238647700295e-10 1.6096999973355434e-09" free_energy=-2.0528875940161417 pbc="F F F"
C        0.73981593      -1.51694858      -0.00000443      -0.00167944      -0.00278014      -0.00024629      -0.25027688
C        2.12836387      -1.52373975       0.00048902       0.00286533       0.00153300       0.00001537      -0.23553647
C        2.83418459      -0.32708229      -0.00001707       0.00076227       0.00187718      -0.00023404      -0.26688760
C        2.10389551       0.84485534      -0.00087866       0.00218329       0.00299559      -0.00001603      -0.01974141
C        0.72384582       0.89173995      -0.00135224       0.00109998       0.00275101      -0.00012164      -0.26691995
C        0.04003806      -0.31760388      -0.00109228      -0.00064843       0.00273985      -0.00008243      -0.23554629
H        0.19928464      -2.45281471       0.00037890      -0.00424893      -0.00746980      -0.00006890       0.04828638
H        2.66981459      -2.45912279       0.00121704      -0.00143907      -0.00251068       0.00002314       0.03946129
H        3.91497789      -0.31652884       0.00020222       0.00490500      -0.00073498       0.00019735      -0.01080378
H        0.19292107       1.83321131      -0.00191569      -0.00310611       0.00346649      -0.00017735      -0.01078191
H       -1.04075749      -0.31602198      -0.00186896      -0.00128292      -0.00262269       0.00042420       0.03946861
I        3.15868101       2.67137520      -0.00129270       0.00126429       0.00225649       0.00007130      -0.61506942
Cl       3.12199076       2.60473257      -2.52046593      -0.00039756      -0.00088741       0.00070027      -0.13428263
Cl       3.11933499       2.60677337       2.51788830      -0.00027772      -0.00061390      -0.00048495      -0.13425753
